 Gaussian 16, Revision A.03,
 Gaussian 16:  ES64L-G16RevA.03 25-Dec-2016

 -----------------------------------------------------------------
 #P wB97XD/Def2SVP opt freq=noraman Int(Grid=UltraFine) nosymmetry
 -----------------------------------------------------------------

 -------------------
 Title Card Required
 -------------------
 Symbolic Z-matrix:
 Charge =  0 Multiplicity = 1

 SCF Done:  E(RwB97XD) =  -155.814176362     A.U. after   13 cycles
 SCF Done:  E(RwB97XD) =  -155.821728856     A.U. after   12 cycles
 SCF Done:  E(RwB97XD) =  -155.822020358     A.U. after   10 cycles
 SCF Done:  E(RwB97XD) =  -155.822029934     A.U. after    8 cycles
 SCF Done:  E(RwB97XD) =  -155.822030514     A.U. after    7 cycles
 Optimization completed.
    -- Stationary point found.
 Normal termination of Gaussian 16 at Thu Jun  1 09:10:22 2023.

 --------------------------------------------------------------------
 #P Geom=AllCheck Guess=TCheck SCRF=Check GenChk RwB97XD/def2SVP Freq
 --------------------------------------------------------------------

 Structure from the checkpoint file:  "butene.chk"
 -------------------
 Title Card Required
 -------------------
 Charge =  0 Multiplicity = 1

                          Input orientation:
 ---------------------------------------------------------------------
 Center     Atomic      Atomic             Coordinates (Angstroms)
 Number     Number       Type             X           Y           Z
 ---------------------------------------------------------------------
      1          6           0        1.048166    1.806175    0.000000
      2          1           0        1.578639    0.846506    0.000000
      3          6           0        1.749961    2.944903    0.000000
      4          1           0        1.251978    3.919495    0.000000
      5          1           0        2.842067    2.943404    0.000000
      6          6           0       -0.413172    1.741336    0.000000
      7          1           0       -0.943632    2.701011    0.000000
      8          6           0       -1.114978    0.602615    0.000000
      9          1           0       -0.617014   -0.371985    0.000000
     10          1           0       -2.207085    0.604136    0.000000
 ---------------------------------------------------------------------

 SCF Done:  E(RwB97XD) =  -155.822030514     A.U. after    1 cycles

 Alpha  occ. eigenvalues --  -10.30714 -10.30700 -10.30019 -10.30017  -0.89933
 Alpha  occ. eigenvalues --   -0.82578  -0.69187  -0.63924  -0.55409  -0.55034
 Alpha  occ. eigenvalues --   -0.47952  -0.46903  -0.42657  -0.41404  -0.31351
 Alpha virt. eigenvalues --    0.03879   0.14960   0.15859   0.16890   0.17641
 Alpha virt. eigenvalues --    0.22264   0.24208   0.24513   0.36903   0.39360
 Alpha virt. eigenvalues --    0.44806   0.46733   0.47804   0.50637   0.52660

 Mulliken charges:
               1
     1  C   -0.044343
     2  H    0.027326
     3  C   -0.082024
     4  H    0.045134
     5  H    0.053906
     6  C   -0.044343
     7  H    0.027326
     8  C   -0.082023
     9  H    0.045134
    10  H    0.053906
 Sum of Mulliken charges =   0.00000

 Dipole moment (field-independent basis, Debye):
    X=              0.0000    Y=              0.0000    Z=              0.0000  Tot=              0.0000
 Quadrupole moment (field-independent basis, Debye-Ang):
   XX=            -22.9315   YY=            -22.7800   ZZ=            -28.3273
   XY=             -0.0302   XZ=              0.0000   YZ=              0.0000

  Exact polarizability:  58.982  20.524  60.521   0.000   0.000  20.870
 Approx polarizability:  57.394  20.859  65.205   0.000   0.000  24.146

                      1                      2                      3
                      A                      A                      A
 Frequencies --    166.5472               300.2614               519.5779
 Red. masses --      2.5844                 2.1571                 2.6898
 Frc consts  --      0.0422                 0.1146                 0.4278
 IR Inten    --      0.3691                 2.4270                 0.0000

                      4                      5                      6
                      A                      A                      A
 Frequencies --    538.5304               785.3267               903.4242
 Red. masses --      1.0824                 1.6287                 1.7541
 Frc consts  --      0.1850                 0.5918                 0.8435
 IR Inten    --     11.3065                 0.0000                 0.0000

                      7                      8                      9
                      A                      A                      A
 Frequencies --    952.5771               952.6118               997.7041
 Red. masses --      1.3494                 1.2876                 1.2008
 Frc consts  --      0.7214                 0.6884                 0.7042
 IR Inten    --     85.3245                 0.2012                 3.0212

                     10                     11                     12
                      A                      A                      A
 Frequencies --   1015.1121              1063.0058              1227.1692
 Red. masses --      1.2466                 1.1031                 1.8698
 Frc consts  --      0.7568                 0.7344                 1.6590
 IR Inten    --      0.0000                25.3598                 0.0000

                     13                     14                     15
                      A                      A                      A
 Frequencies --   1308.6110              1310.4611              1403.3516
 Red. masses --      1.2658                 1.3369                 1.1744
 Frc consts  --      1.2771                 1.3527                 1.3627
 IR Inten    --      2.1111                 0.0000                 7.0035

                     16                     17                     18
                      A                      A                      A
 Frequencies --   1458.4581              1692.8643              1764.9515
 Red. masses --      1.2325                 4.3934                 5.2670
 Frc consts  --      1.5446                 7.4182                 9.6668
 IR Inten    --      0.0000                15.7876                 0.0000

                     19                     20                     21
                      A                      A                      A
 Frequencies --   3156.9043              3158.5571              3170.6815
 Red. masses --      1.0629                 1.0609                 1.0929
 Frc consts  --      6.2413                 6.2359                 6.4736
 IR Inten    --      0.0000                14.0982                 0.0000

                     22                     23                     24
                      A                      A                      A
 Frequencies --   3175.7275              3265.6543              3265.6986
 Red. masses --      1.0948                 1.1174                 1.1170
 Frc consts  --      6.5056                 7.0208                 7.0189
 IR Inten    --     12.1484                 0.0016                12.8293

 - Thermochemistry -
 -------------------
 Temperature   298.150 Kelvin.  Pressure   1.00000 Atm.
 Atom     1 has atomic number  6 and mass  12.00000

 Molecular mass:    54.04695 amu.
 Principal axes and moments of inertia in atomic units:
                           1         2         3
     Eigenvalues --    43.09639 408.95456 452.05095
           X            0.81353  -0.58153   0.00000
           Y            0.58153   0.81353   0.00000
           Z            0.00000   0.00000   1.00000
 This molecule is an asymmetric top.
 Rotational symmetry number  1.
 Rotational temperatures (Kelvin)      2.00977     0.21179     0.19160
 Rotational constants (GHZ):          41.87685     4.41306     3.99234
 Zero-point vibrational energy     224621.4 (Joules/Mol)
                                   53.68581 (Kcal/Mol)
 Warning -- explicit consideration of   4 degrees of freedom as
           vibrations may cause significant error
 Vibrational temperatures:    239.62   432.01   747.56   774.83  1129.91
          (Kelvin)           1299.83  1370.55  1370.60  1435.47  1460.52
                             1529.43  1765.62  1882.80  1885.46  2019.11
                             2098.40  2435.65  2539.37  4542.08  4544.46
                             4561.90  4569.16  4698.55  4698.61

 Zero-point correction=                           0.085554 (Hartree/Particle)
 Thermal correction to Energy=                    0.090207
 Thermal correction to Enthalpy=                  0.091151
 Thermal correction to Gibbs Free Energy=         0.059073
 Sum of electronic and zero-point Energies=           -155.736477
 Sum of electronic and thermal Energies=              -155.731823
 Sum of electronic and thermal Enthalpies=            -155.730879
 Sum of electronic and thermal Free Energies=         -155.762957

                     E (Thermal)             CV                S
                      KCal/Mol        Cal/Mol-Kelvin    Cal/Mol-Kelvin
 Total                   56.606             15.711             67.514
 Electronic               0.000              0.000              0.000
 Translational            0.889              2.981             37.884
 Rotational               0.889              2.981             23.592
 Vibrational             54.828              9.750              6.038
 Vibration     1          0.624              1.884              2.474
 Vibration     2          0.693              1.673              1.415
 Vibration     3          0.875              1.207              0.611
 Vibration     4          0.894              1.165              0.568

 Optimization completed.
    -- Stationary point found.
 Normal termination of Gaussian 16 at Thu Jun  1 09:10:35 2023.
