 Gaussian 16, Revision A.03,
 Gaussian 16:  ES64L-G16RevA.03 25-Dec-2016

 -----------------------------------------------------------------
 #P wB97XD/Def2SVP opt freq=noraman Int(Grid=UltraFine) nosymmetry
 -----------------------------------------------------------------

 -------------------
 Title Card Required
 -------------------
 Symbolic Z-matrix:
 Charge =  0 Multiplicity = 1

 SCF Done:  E(RwB97XD) =  -234.328167399     A.U. after   14 cycles
 SCF Done:  E(RwB97XD) =  -234.370420861     A.U. after   13 cycles
 SCF Done:  E(RwB97XD) =  -234.399167540     A.U. after   13 cycles
 SCF Done:  E(RwB97XD) =  -234.406041365     A.U. after   12 cycles
 SCF Done:  E(RwB97XD) =  -234.410244525     A.U. after   12 cycles
 SCF Done:  E(RwB97XD) =  -234.410814403     A.U. after   10 cycles
 SCF Done:  E(RwB97XD) =  -234.411067557     A.U. after   10 cycles
 SCF Done:  E(RwB97XD) =  -234.411094994     A.U. after   10 cycles
 SCF Done:  E(RwB97XD) =  -234.411096443     A.U. after    7 cycles
 SCF Done:  E(RwB97XD) =  -234.411096592     A.U. after    6 cycles
 Optimization completed.
    -- Stationary point found.
 Normal termination of Gaussian 16 at Thu Jun  1 09:11:34 2023.

 --------------------------------------------------------------------
 #P Geom=AllCheck Guess=TCheck SCRF=Check GenChk RwB97XD/def2SVP Freq
 --------------------------------------------------------------------

 Structure from the checkpoint file:  "cyclohexene.chk"
 -------------------
 Title Card Required
 -------------------
 Charge =  0 Multiplicity = 1

                          Input orientation:
 ---------------------------------------------------------------------
 Center     Atomic      Atomic             Coordinates (Angstroms)
 Number     Number       Type             X           Y           Z
 ---------------------------------------------------------------------
      1          6           0       -1.095951   -3.029583   -0.004310
      2          6           0        0.432336   -3.082304    0.044304
      3          6           0        1.035708   -1.736232    0.347389
      4          6           0        0.329681   -0.701756    0.814045
      5          6           0       -1.144104   -0.772724    1.115513
      6          6           0       -1.652368   -2.214978    1.163161
      7          1           0        2.109746   -1.616020    0.171275
      8          1           0        0.763665   -3.807689    0.810581
      9          1           0        0.833511   -3.461640   -0.910113
     10          1           0       -1.412915   -2.560879   -0.952316
     11          1           0       -1.512803   -4.048571   -0.002297
     12          1           0        0.833164    0.254442    0.990707
     13          1           0       -1.351942   -0.261092    2.069858
     14          1           0       -1.697894   -0.199461    0.348811
     15          1           0       -1.332230   -2.681432    2.111206
     16          1           0       -2.753200   -2.231488    1.160308
 ---------------------------------------------------------------------

 SCF Done:  E(RwB97XD) =  -234.411096592     A.U. after    1 cycles

 Alpha  occ. eigenvalues --  -10.29347 -10.29346 -10.29025 -10.29015 -10.28919
 Alpha  occ. eigenvalues --  -10.28842  -0.92477  -0.83019  -0.82828  -0.70454
 Alpha  occ. eigenvalues --   -0.68343  -0.59338  -0.57994  -0.52892  -0.50932
 Alpha  occ. eigenvalues --   -0.49112  -0.47221  -0.46117  -0.46072  -0.40461
 Alpha  occ. eigenvalues --   -0.39570  -0.38285  -0.31841
 Alpha virt. eigenvalues --    0.09711   0.13599   0.17003   0.17648   0.18124
 Alpha virt. eigenvalues --    0.20878   0.21262   0.22044   0.23480   0.23908
 Alpha virt. eigenvalues --    0.25208   0.29652   0.30964   0.32428   0.33016

 Mulliken charges:
               1
     1  C   -0.056161
     2  C    0.015468
     3  C   -0.111115
     4  C   -0.111107
     5  C    0.015464
     6  C   -0.056183
     7  H    0.022096
     8  H    0.038027
     9  H    0.034614
    10  H    0.029352
    11  H    0.027726
    12  H    0.022095
    13  H    0.034605
    14  H    0.038031
    15  H    0.029365
    16  H    0.027724
 Sum of Mulliken charges =   0.00000

 Dipole moment (field-independent basis, Debye):
    X=             -0.2304    Y=             -0.1571    Z=             -0.0006  Tot=              0.2788
 Quadrupole moment (field-independent basis, Debye-Ang):
   XX=            -37.4782   YY=            -36.6956   ZZ=            -38.9797
   XY=              0.0642   XZ=             -0.5567   YZ=              0.5304

  Exact polarizability:  65.060  -3.902  68.111  -4.942   7.253  51.845
 Approx polarizability:  67.295  -6.700  72.538  -4.050   5.941  58.922

                      1                      2                      3
                      A                      A                      A
 Frequencies --    171.7724               285.6301               400.0779
 Red. masses --      1.7495                 1.8241                 1.8752
 Frc consts  --      0.0304                 0.0877                 0.1768
 IR Inten    --      0.4050                 0.0372                 0.0347

                      4                      5                      6
                      A                      A                      A
 Frequencies --    462.0201               507.4262               657.3900
 Red. masses --      2.2462                 4.3383                 1.3455
 Frc consts  --      0.2825                 0.6581                 0.3426
 IR Inten    --      1.4194                 0.0292                23.2405

                      7                      8                      9
                      A                      A                      A
 Frequencies --    737.1724               829.0125               846.3804
 Red. masses --      1.6012                 1.3842                 3.5386
 Frc consts  --      0.5127                 0.5605                 1.4935
 IR Inten    --      9.1318                 0.9755                 0.0000

                     10                     11                     12
                      A                      A                      A
 Frequencies --    903.7862               930.7585               936.9640
 Red. masses --      2.2471                 2.2762                 1.4238
 Frc consts  --      1.0814                 1.1618                 0.7365
 IR Inten    --      6.9499                 0.8173                 4.7576

                     13                     14                     15
                      A                      A                      A
 Frequencies --   1017.1754              1020.2737              1060.6853
 Red. masses --      1.1774                 3.0916                 1.4765
 Frc consts  --      0.7177                 1.8961                 0.9787
 IR Inten    --      0.0012                 1.3828                 5.2714

                     16                     17                     18
                      A                      A                      A
 Frequencies --   1094.4729              1098.3794              1158.6797
 Red. masses --      1.6243                 1.8846                 1.1588
 Frc consts  --      1.1463                 1.3396                 0.9166
 IR Inten    --      0.0355                 0.0019                 5.0521

                     19                     20                     21
                      A                      A                      A
 Frequencies --   1169.9006              1248.0058              1271.8883
 Red. masses --      1.0993                 1.2120                 1.2780
 Frc consts  --      0.8865                 1.1122                 1.2181
 IR Inten    --      0.0013                 0.2799                 0.3477

                     22                     23                     24
                      A                      A                      A
 Frequencies --   1291.1609              1342.1339              1387.0163
 Red. masses --      1.1523                 1.3033                 1.5902
 Frc consts  --      1.1319                 1.3832                 1.8024
 IR Inten    --      2.6441                 1.1465                 0.1212

                     25                     26                     27
                      A                      A                      A
 Frequencies --   1387.5277              1391.6553              1424.1710
 Red. masses --      1.7272                 1.5975                 1.7637
 Frc consts  --      1.9592                 1.8228                 2.1077
 IR Inten    --      0.7270                 0.3959                 0.2072

                     28                     29                     30
                      A                      A                      A
 Frequencies --   1453.4938              1460.3901              1472.6499
 Red. masses --      1.0868                 1.0931                 1.1078
 Frc consts  --      1.3528                 1.3736                 1.4155
 IR Inten    --      0.0979                11.1226                 5.5309

                     31                     32                     33
                      A                      A                      A
 Frequencies --   1484.6317              1762.9594              3032.7429
 Red. masses --      1.1129                 6.9356                 1.0678
 Frc consts  --      1.4452                12.7005                 5.7867
 IR Inten    --      2.4251                 2.5907                19.6797

                     34                     35                     36
                      A                      A                      A
 Frequencies --   3033.4079              3050.4320              3052.4314
 Red. masses --      1.0674                 1.0683                 1.0634
 Frc consts  --      5.7869                 5.8568                 5.8378
 IR Inten    --     40.2901                20.6719                27.9129

                     37                     38                     39
                      A                      A                      A
 Frequencies --   3090.6705              3091.8335              3112.9259
 Red. masses --      1.0973                 1.0972                 1.1010
 Frc consts  --      6.1758                 6.1797                 6.2861
 IR Inten    --     36.6663                15.9462                35.7131

                     40                     41                     42
                      A                      A                      A
 Frequencies --   3116.7552              3171.7761              3194.0802
 Red. masses --      1.1057                 1.0858                 1.0995
 Frc consts  --      6.3283                 6.4356                 6.6091
 IR Inten    --     38.6779                 5.9881                29.7297

 - Thermochemistry -
 -------------------
 Temperature   298.150 Kelvin.  Pressure   1.00000 Atm.
 Atom     1 has atomic number  6 and mass  12.00000

 Molecular mass:    82.07825 amu.
 Principal axes and moments of inertia in atomic units:
                           1         2         3
     Eigenvalues --   381.09225 396.68735 706.06829
           X           -0.50962   0.82603   0.24076
           Y            0.74647   0.56363  -0.35371
           Z            0.42787   0.00054   0.90384
 This molecule is an asymmetric top.
 Rotational symmetry number  1.
 Rotational temperatures (Kelvin)      0.22728     0.21834     0.12267
 Rotational constants (GHZ):           4.73571     4.54953     2.55604
 Zero-point vibrational energy     386469.8 (Joules/Mol)
                                   92.36849 (Kcal/Mol)
 Warning -- explicit consideration of   5 degrees of freedom as
           vibrations may cause significant error
 Vibrational temperatures:    247.14   410.96   575.62   664.74   730.07
          (Kelvin)            945.84  1060.63  1192.76  1217.75  1300.35
                             1339.15  1348.08  1463.49  1467.95  1526.09
                             1574.70  1580.32  1667.08  1683.23  1795.60
                             1829.96  1857.69  1931.03  1995.61  1996.34
                             2002.28  2049.06  2091.25  2101.18  2118.81
                             2136.05  2536.51  4363.44  4364.40  4388.89
                             4391.77  4446.79  4448.46  4478.81  4484.32
                             4563.48  4595.57

 Zero-point correction=                           0.147199 (Hartree/Particle)
 Thermal correction to Energy=                    0.152660
 Thermal correction to Enthalpy=                  0.153605
 Thermal correction to Gibbs Free Energy=         0.118607
 Sum of electronic and zero-point Energies=           -234.263898
 Sum of electronic and thermal Energies=              -234.258436
 Sum of electronic and thermal Enthalpies=            -234.257492
 Sum of electronic and thermal Free Energies=         -234.292490

                     E (Thermal)             CV                S
                      KCal/Mol        Cal/Mol-Kelvin    Cal/Mol-Kelvin
 Total                   95.796             21.304             73.658
 Electronic               0.000              0.000              0.000
 Translational            0.889              2.981             39.129
 Rotational               0.889              2.981             26.171
 Vibrational             94.018             15.342              8.359
 Vibration     1          0.626              1.877              2.416
 Vibration     2          0.683              1.700              1.500
 Vibration     3          0.766              1.470              0.962
 Vibration     4          0.820              1.334              0.760
 Vibration     5          0.863              1.234              0.640

 Optimization completed.
    -- Stationary point found.
 Normal termination of Gaussian 16 at Thu Jun  1 09:12:10 2023.
