 Gaussian 16, Revision A.03,
 Gaussian 16:  ES64L-G16RevA.03 25-Dec-2016

 -----------------------------------------------------------------
 #P wB97XD/Def2SVP opt freq=noraman Int(Grid=UltraFine) nosymmetry
 -----------------------------------------------------------------

 -------------------
 Title Card Required
 -------------------
 Symbolic Z-matrix:
 Charge =  0 Multiplicity = 1

 SCF Done:  E(RwB97XD) =  -78.4985526018     A.U. after   11 cycles
 SCF Done:  E(RwB97XD) =  -78.5009454587     A.U. after   11 cycles
 SCF Done:  E(RwB97XD) =  -78.5010574025     A.U. after    9 cycles
 SCF Done:  E(RwB97XD) =  -78.5010656036     A.U. after    7 cycles
 Optimization completed.
    -- Stationary point found.
 Normal termination of Gaussian 16 at Thu Jun  1 09:09:58 2023.

 --------------------------------------------------------------------
 #P Geom=AllCheck Guess=TCheck SCRF=Check GenChk RwB97XD/def2SVP Freq
 --------------------------------------------------------------------

 Structure from the checkpoint file:  "ethene.chk"
 -------------------
 Title Card Required
 -------------------
 Charge =  0 Multiplicity = 1

                          Input orientation:
 ---------------------------------------------------------------------
 Center     Atomic      Atomic             Coordinates (Angstroms)
 Number     Number       Type             X           Y           Z
 ---------------------------------------------------------------------
      1          6           0        1.095438    1.783841    0.000000
      2          1           0        1.615015    0.821199    0.000000
      3          1           0        0.002008    1.751962    0.000000
      4          6           0        1.760104    2.935594    0.000000
      5          1           0        1.240527    3.898236    0.000000
      6          1           0        2.853534    2.967473    0.000000
 ---------------------------------------------------------------------

 SCF Done:  E(RwB97XD) =  -78.5010656036     A.U. after    1 cycles

 Alpha  occ. eigenvalues --  -10.30030 -10.29953  -0.85080  -0.66348  -0.55452
 Alpha  occ. eigenvalues --   -0.50467  -0.43476  -0.35669
 Alpha virt. eigenvalues --    0.08360   0.16699   0.18515   0.19965   0.27251
 Alpha virt. eigenvalues --    0.40813   0.47848   0.51913   0.52796   0.57756
 Alpha virt. eigenvalues --    0.63746   0.66987   0.73611   0.75755   0.76613

 Mulliken charges:
               1
     1  C   -0.112529
     2  H    0.056265
     3  H    0.056264
     4  C   -0.112529
     5  H    0.056265
     6  H    0.056264
 Sum of Mulliken charges =   0.00000

 Dipole moment (field-independent basis, Debye):
    X=              0.0000    Y=              0.0000    Z=              0.0000  Tot=              0.0000
 Quadrupole moment (field-independent basis, Debye-Ang):
   XX=            -12.1787   YY=            -12.1485   ZZ=            -15.1835
   XY=              0.0265   XZ=              0.0000   YZ=              0.0000

  Exact polarizability:  23.642   5.061  29.503   0.000   0.000  11.151
 Approx polarizability:  23.513   6.090  30.552   0.000   0.000  11.993

                      1                      2                      3
                      A                      A                      A
 Frequencies --    829.4222               974.7874               989.4731
 Red. masses --      1.0422                 1.1607                 1.5211
 Frc consts  --      0.4224                 0.6498                 0.8775
 IR Inten    --      0.9455                93.0138                 0.0000

                      4                      5                      6
                      A                      A                      A
 Frequencies --   1065.4934              1225.8366              1371.5085
 Red. masses --      1.0078                 1.5262                 1.1563
 Frc consts  --      0.6741                 1.3512                 1.2816
 IR Inten    --      0.0001                 0.0000                 0.0000

                      7                      8                      9
                      A                      A                      A
 Frequencies --   1448.3955              1726.0558              3148.3997
 Red. masses --      1.1119                 3.6002                 1.0478
 Frc consts  --      1.3743                 6.3196                 6.1194
 IR Inten    --      9.2642                 0.0000                12.9623

                     10                     11                     12
                      A                      A                      A
 Frequencies --   3169.7569              3245.8862              3266.4114
 Red. masses --      1.0808                 1.1167                 1.1183
 Frc consts  --      6.3980                 6.9316                 7.0297
 IR Inten    --      0.0000                 0.0000                13.5072

 - Thermochemistry -
 -------------------
 Temperature   298.150 Kelvin.  Pressure   1.00000 Atm.
 Atom     1 has atomic number  6 and mass  12.00000

 Molecular mass:    28.03130 amu.
 Principal axes and moments of inertia in atomic units:
                           1         2         3
     Eigenvalues --    12.48176  59.98804  72.46980
           X            0.49983   0.86612   0.00000
           Y            0.86612  -0.49983   0.00000
           Z            0.00000   0.00000   1.00000
 This molecule is an asymmetric top.
 Rotational symmetry number  2.
 Rotational temperatures (Kelvin)      6.93924     1.44385     1.19517
 Rotational constants (GHZ):         144.59028    30.08502    24.90336
 Zero-point vibrational energy     134349.2 (Joules/Mol)
                                   32.11022 (Kcal/Mol)
 Vibrational temperatures:   1193.35  1402.50  1423.63  1533.01  1763.71
          (Kelvin)           1973.29  2083.92  2483.41  4529.84  4560.57
                             4670.11  4699.64

 Zero-point correction=                           0.051171 (Hartree/Particle)
 Thermal correction to Energy=                    0.054213
 Thermal correction to Enthalpy=                  0.055157
 Thermal correction to Gibbs Free Energy=         0.029634
 Sum of electronic and zero-point Energies=            -78.449895
 Sum of electronic and thermal Energies=               -78.446853
 Sum of electronic and thermal Enthalpies=             -78.445909
 Sum of electronic and thermal Free Energies=          -78.471432

                     E (Thermal)             CV                S
                      KCal/Mol        Cal/Mol-Kelvin    Cal/Mol-Kelvin
 Total                   34.019              8.099             53.718
 Electronic               0.000              0.000              0.000
 Translational            0.889              2.981             35.927
 Rotational               0.889              2.981             17.257
 Vibrational             32.242              2.137              0.534

 Optimization completed.
    -- Stationary point found.
 Normal termination of Gaussian 16 at Thu Jun  1 09:10:03 2023.
